O
           1
     8.000000    0.000000    0.000000
     0.000000    8.000000    0.000000
     0.000000    0.000000    8.000000
 O               
                2
Direct configuration=     1
  0.50000000  0.50000000  0.42283759
  0.50000000  0.50000000  0.72716241
Direct configuration=     2
  0.49999150  0.49999339  0.42457448
  0.50000392  0.49999924  0.72542736
Direct configuration=     3
  0.49998171  0.49996838  0.42996639
  0.49997824  0.49995483  0.72004321
Direct configuration=     4
  0.49995503  0.49997919  0.43973039
  0.49988012  0.49994522  0.71029906
Direct configuration=     5
  0.49988615  0.49994647  0.45222997
  0.49994136  0.49988321  0.69779946
Direct configuration=     6
  0.49986173  0.49996279  0.46472987
  0.49993522  0.49983797  0.68531734
Direct configuration=     7
  0.49986101  0.49997374  0.47722982
  0.49991471  0.49981939  0.67281838
Direct configuration=     8
  0.49987329  0.49997721  0.48972958
  0.49990498  0.49981209  0.66031842
Direct configuration=     9
  0.49987887  0.49996596  0.50220781
  0.49991463  0.49981958  0.64781846
Direct configuration=    10
  0.49988324  0.49996955  0.49887918
  0.49990929  0.49981451  0.65121822
Direct configuration=    11
  0.49988430  0.49995840  0.49513055
  0.49990254  0.49982104  0.65522846
Direct configuration=    12
  0.49988603  0.49995367  0.49673926
  0.49990496  0.49982581  0.65362027
Direct configuration=    13
  0.49989687  0.49993550  0.49979819
  0.49991468  0.49984458  0.65056184
Direct configuration=    14
  0.49989865  0.49993221  0.49906679
  0.49991523  0.49984799  0.65131019
Direct configuration=    15
  0.49990418  0.49992079  0.49776672
  0.49991758  0.49985887  0.65265389
Direct configuration=    16
  0.49990446  0.49991925  0.49786550
  0.49991809  0.49986042  0.65255516
Direct configuration=    17
  0.49990770  0.49991525  0.49813260
  0.49991744  0.49986591  0.65227084
Direct configuration=    18
  0.49990514  0.49989763  0.49848079
  0.49993074  0.49987414  0.65197230
Direct configuration=    19
  0.49990608  0.49989555  0.49842634
  0.49993132  0.49987601  0.65202853
Direct configuration=    20
  0.49990924  0.49988862  0.49829420
  0.49993330  0.49988222  0.65216451
