O
           1
     8.000000    0.000000    0.000000
     0.000000    8.000000    0.000000
     0.000000    0.000000    8.000000
 O               
                2
Direct configuration=     1
  0.50000000  0.50000000  0.42283759
  0.50000000  0.50000000  0.57716241
Direct configuration=     2
  0.50000000  0.50000000  0.42502071
  0.50000000  0.50000000  0.57497929
Direct configuration=     3
  0.50000000  0.50000000  0.43066803
  0.50000000  0.50000000  0.56933197
Direct configuration=     4
  0.50000000  0.50000000  0.43669256
  0.50000000  0.50000000  0.56330744
Direct configuration=     5
  0.50000000  0.50000000  0.43448160
  0.50000000  0.50000000  0.56551840
Direct configuration=     6
  0.50000000  0.50000000  0.42981904
  0.50000000  0.50000000  0.57018096
Direct configuration=     7
  0.50000000  0.50000000  0.43027856
  0.50000000  0.50000000  0.56972144
Direct configuration=     8
  0.50000000  0.50000000  0.43136755
  0.50000000  0.50000000  0.56863245
Direct configuration=     9
  0.50000000  0.50000000  0.43132151
  0.50000000  0.50000000  0.56867849
Direct configuration=    10
  0.50000000  0.50000000  0.43121492
  0.50000000  0.50000000  0.56878508
