O
           1
     8.000000    0.000000    0.000000
     0.000000    8.000000    0.000000
     0.000000    0.000000    8.000000
 O               
                2
Direct configuration=     1
  0.50000000  0.50000000  0.42283759
  0.50000000  0.50000000  0.57716241
Direct configuration=     2
  0.50000000  0.50000000  0.42907507
  0.50000000  0.50000000  0.57092493
Direct configuration=     3
  0.50000000  0.50000000  0.43192620
  0.50000000  0.50000000  0.56807380
Direct configuration=     4
  0.50000000  0.50000000  0.43118379
  0.50000000  0.50000000  0.56881621
Direct configuration=     5
  0.50000000  0.50000000  0.43123167
  0.50000000  0.50000000  0.56876833
