O
           1
     8.000000    0.000000    0.000000
     0.000000    8.000000    0.000000
     0.000000    0.000000    8.000000
 O               
                2
Direct configuration=     1
  0.50000000  0.50000000  0.42283759
  0.50000000  0.50000000  0.72716241
Direct configuration=     2
  0.49999946  0.49999958  0.42294834
  0.50000025  0.49999995  0.72705178
Direct configuration=     3
  0.50000748  0.49989123  0.43544363
  0.49999957  0.49991912  0.71455204
Direct configuration=     4
  0.49986913  0.49991756  0.44794284
  0.49998232  0.49987920  0.70205552
Direct configuration=     5
  0.49984679  0.49984791  0.46037695
  0.49998552  0.49984291  0.68955557
Direct configuration=     6
  0.49983817  0.49986651  0.47287693
  0.49995787  0.49981185  0.67705690
Direct configuration=     7
  0.49983736  0.49988167  0.48537692
  0.49993009  0.49979362  0.66455794
Direct configuration=     8
  0.49985340  0.49988493  0.49787691
  0.49993188  0.49978935  0.65209068
Direct configuration=     9
  0.49985532  0.49983347  0.49316176
  0.49994679  0.49984229  0.65679637
Direct configuration=    10
  0.49985389  0.49988213  0.49795250
  0.49993273  0.49979217  0.65201551
Direct configuration=    11
  0.49985507  0.49988112  0.49799765
  0.49993247  0.49979245  0.65197030
Direct configuration=    12
  0.49985965  0.49987087  0.49802880
  0.49993590  0.49980174  0.65193352
Direct configuration=    13
  0.49995787  0.49934291  0.51051726
  0.50028846  0.49991954  0.64462704
