O
           1
     8.000000    0.000000    0.000000
     0.000000    8.000000    0.000000
     0.000000    0.000000    8.000000
 O               
                2
Direct configuration=     1
  0.50000000  0.50000000  0.42283759
  0.50000000  0.50000000  0.72716241
Direct configuration=     2
  0.49997571  0.49998111  0.42780013
  0.50001121  0.49999781  0.72220512
Direct configuration=     3
  0.49988341  0.49998836  0.44029979
  0.49999136  0.49995744  0.70973443
Direct configuration=     4
  0.49982255  0.49996032  0.45279961
  0.49995938  0.49987697  0.69726032
Direct configuration=     5
  0.49979305  0.49997391  0.46524445
  0.49993298  0.49983718  0.68476041
Direct configuration=     6
  0.49978939  0.49997467  0.47767833
  0.49993692  0.49982506  0.67226041
Direct configuration=     7
  0.49979130  0.49997905  0.49017833
  0.49994881  0.49981609  0.65977645
Direct configuration=     8
  0.49980035  0.49996636  0.50267832
  0.49993779  0.49982812  0.64729273
Direct configuration=     9
  0.49980301  0.49996370  0.49584170
  0.49994652  0.49983152  0.65412633
Direct configuration=    10
  0.49981102  0.49995252  0.49732009
  0.49995118  0.49984396  0.65265581
Direct configuration=    11
  0.49981178  0.49994652  0.49756479
  0.49995241  0.49984998  0.65241133
Direct configuration=    12
  0.49981730  0.49993287  0.49792948
  0.49995656  0.49986171  0.65201195
Direct configuration=    13
  0.49981746  0.49992578  0.49802709
  0.49996081  0.49986593  0.65192360
