    4    4  500    1
  0.2500000E+03  0.1000000E-08  0.1000000E-08  0.1000000E-08  0.5000000E-15
   1.0000000000000000E-004
  CAR 
 unknown system                          
      8      1      8
 
  0.1262379E-14  0.1262379E-14  0.1262379E-14  0.1000000E+01
      1        -20.961156   1.000000
      2        -11.101055   1.000000
      3        -11.099919   1.000000
      4         -5.971570   1.000000
      5         -0.811222   0.000000
      6          0.688721   0.000000
      7          0.873289   0.000000
      8          0.885615   0.000000
