H Pd H
           1
    40.000000    0.000000    0.000000
     0.000000   40.000000    0.000000
     0.000000    0.000000   40.000000
 H                Pd               H               
                1                3                1
Direct configuration=     1
  0.52382099  0.50439654  0.46484921
  0.52590936  0.48536587  0.50136596
  0.49825577  0.51451268  0.53515079
  0.47409064  0.47353569  0.50002841
  0.49833861  0.52646431  0.50123464
